
Predictions were generated on 06-Sep-2024 at 17:54:47 using FAST (v8.16.00a-bjj, 27-Jul-2016), compiled as a 32-bit application using single precision
 linked with  NWTC Subroutine Library (v2.09.00, 23-Jul-2016); ElastoDyn (v1.04.00a-bjj, 26-Jul-2016); InflowWind (v3.03.00, 26-Jul-2016); AeroDyn14 (v14.05.01a-bjj, 25-Jul-2016); ServoDyn (v1.06.00a-bjj, 26-Jul-2016)

Description from the FAST input file: NREL 5.0 MW Baseline Wind Turbine (Onshore)

Time      	Wind1VelX 	BldPitch1 	RotSpeed  	TTDspFA   	TwrBsMyt  	LSShftTq  	RootMyc1  	GenPwr    	GenTq     
(s)       	(m/s)     	(deg)     	(rpm)     	(m)       	(kN·m)    	(kN·m)    	(kN·m)    	(kW)      	(kN·m)    
    0.0000	 1.600E+01	 1.200E+01	 1.210E+01	 0.000E+00	-1.420E+03	 0.000E+00	 1.017E+03	 5.000E+03	 4.309E+01
    0.0125	 1.600E+01	 1.200E+01	 1.210E+01	 0.000E+00	 4.244E+04	 4.352E+03	 6.767E+03	 5.000E+03	 4.308E+01
    0.0250	 1.600E+01	 1.203E+01	 1.210E+01	 0.000E+00	 2.500E+04	 4.004E+03	 4.387E+03	 5.000E+03	 4.309E+01
    0.0375	 1.600E+01	 1.200E+01	 1.210E+01	 0.000E+00	 3.387E+04	 4.182E+03	 5.587E+03	 5.000E+03	 4.309E+01
    0.0500	 1.600E+01	 1.201E+01	 1.210E+01	 0.000E+00	 3.395E+04	 4.183E+03	 5.605E+03	 5.000E+03	 4.309E+01
    0.0625	 1.600E+01	 1.201E+01	 1.210E+01	 0.000E+00	 3.388E+04	 4.182E+03	 5.587E+03	 5.000E+03	 4.309E+01
    0.0750	 1.600E+01	 1.201E+01	 1.210E+01	 0.000E+00	 3.383E+04	 4.181E+03	 5.579E+03	 5.000E+03	 4.309E+01
    0.0875	 1.600E+01	 1.201E+01	 1.210E+01	 0.000E+00	 3.386E+04	 4.181E+03	 5.581E+03	 5.000E+03	 4.309E+01
    0.1000	 1.600E+01	 1.201E+01	 1.210E+01	 0.000E+00	 3.385E+04	 4.181E+03	 5.578E+03	 5.000E+03	 4.309E+01
    0.1125	 1.600E+01	 1.201E+01	 1.210E+01	 0.000E+00	 3.385E+04	 4.181E+03	 5.575E+03	 5.000E+03	 4.309E+01
    0.1250	 1.600E+01	 1.201E+01	 1.210E+01	 0.000E+00	 3.385E+04	 4.181E+03	 5.573E+03	 5.000E+03	 4.308E+01
    0.1375	 1.600E+01	 1.201E+01	 1.210E+01	 0.000E+00	 3.385E+04	 4.181E+03	 5.571E+03	 5.000E+03	 4.308E+01
    0.1500	 1.600E+01	 1.201E+01	 1.210E+01	 0.000E+00	 3.384E+04	 4.181E+03	 5.568E+03	 5.000E+03	 4.308E+01
    0.1625	 1.600E+01	 1.201E+01	 1.210E+01	 0.000E+00	 3.384E+04	 4.181E+03	 5.566E+03	 5.000E+03	 4.308E+01
    0.1750	 1.600E+01	 1.201E+01	 1.210E+01	 0.000E+00	 3.384E+04	 4.181E+03	 5.564E+03	 5.000E+03	 4.308E+01
    0.1875	 1.600E+01	 1.201E+01	 1.210E+01	 0.000E+00	 3.384E+04	 4.181E+03	 5.562E+03	 5.000E+03	 4.308E+01
    0.2000	 1.600E+01	 1.201E+01	 1.210E+01	 0.000E+00	 3.384E+04	 4.181E+03	 5.560E+03	 5.000E+03	 4.308E+01
    0.2125	 1.600E+01	 1.201E+01	 1.210E+01	 0.000E+00	 3.384E+04	 4.181E+03	 5.558E+03	 5.000E+03	 4.308E+01
    0.2250	 1.600E+01	 1.201E+01	 1.210E+01	 0.000E+00	 3.383E+04	 4.181E+03	 5.555E+03	 5.000E+03	 4.308E+01
    0.2375	 1.600E+01	 1.201E+01	 1.210E+01	 0.000E+00	 3.383E+04	 4.181E+03	 5.553E+03	 5.000E+03	 4.308E+01
    0.2500	 1.600E+01	 1.201E+01	 1.210E+01	 0.000E+00	 3.383E+04	 4.181E+03	 5.552E+03	 5.000E+03	 4.308E+01
    0.2625	 1.600E+01	 1.201E+01	 1.210E+01	 0.000E+00	 3.383E+04	 4.181E+03	 5.550E+03	 5.000E+03	 4.308E+01
    0.2750	 1.600E+01	 1.201E+01	 1.210E+01	 0.000E+00	 3.383E+04	 4.181E+03	 5.548E+03	 5.000E+03	 4.308E+01
    0.2875	 1.600E+01	 1.201E+01	 1.210E+01	 0.000E+00	 3.383E+04	 4.181E+03	 5.546E+03	 5.000E+03	 4.308E+01
    0.3000	 1.600E+01	 1.201E+01	 1.210E+01	 0.000E+00	 3.382E+04	 4.181E+03	 5.544E+03	 5.000E+03	 4.308E+01
    0.3125	 1.600E+01	 1.201E+01	 1.210E+01	 0.000E+00	 3.382E+04	 4.181E+03	 5.543E+03	 5.000E+03	 4.308E+01
    0.3250	 1.600E+01	 1.201E+01	 1.210E+01	 0.000E+00	 3.382E+04	 4.181E+03	 5.541E+03	 5.000E+03	 4.308E+01
    0.3375	 1.600E+01	 1.201E+01	 1.210E+01	 0.000E+00	 3.382E+04	 4.181E+03	 5.539E+03	 5.000E+03	 4.308E+01
    0.3500	 1.600E+01	 1.201E+01	 1.210E+01	 0.000E+00	 3.382E+04	 4.181E+03	 5.538E+03	 5.000E+03	 4.308E+01
    0.3625	 1.600E+01	 1.201E+01	 1.210E+01	 0.000E+00	 3.382E+04	 4.180E+03	 5.536E+03	 5.000E+03	 4.308E+01
    0.3750	 1.600E+01	 1.201E+01	 1.210E+01	 0.000E+00	 3.382E+04	 4.180E+03	 5.535E+03	 5.000E+03	 4.308E+01
    0.3875	 1.600E+01	 1.201E+01	 1.210E+01	 0.000E+00	 3.381E+04	 4.180E+03	 5.533E+03	 5.000E+03	 4.308E+01
    0.4000	 1.600E+01	 1.201E+01	 1.210E+01	 0.000E+00	 3.381E+04	 4.180E+03	 5.532E+03	 5.000E+03	 4.308E+01
    0.4125	 1.600E+01	 1.201E+01	 1.210E+01	 0.000E+00	 3.381E+04	 4.180E+03	 5.531E+03	 5.000E+03	 4.308E+01
    0.4250	 1.600E+01	 1.201E+01	 1.210E+01	 0.000E+00	 3.381E+04	 4.180E+03	 5.529E+03	 5.000E+03	 4.308E+01
    0.4375	 1.600E+01	 1.201E+01	 1.210E+01	 0.000E+00	 3.381E+04	 4.180E+03	 5.528E+03	 5.000E+03	 4.308E+01
    0.4500	 1.600E+01	 1.201E+01	 1.210E+01	 0.000E+00	 3.381E+04	 4.180E+03	 5.527E+03	 5.000E+03	 4.308E+01
    0.4625	 1.600E+01	 1.202E+01	 1.210E+01	 0.000E+00	 3.380E+04	 4.180E+03	 5.526E+03	 5.000E+03	 4.308E+01
    0.4750	 1.600E+01	 1.202E+01	 1.210E+01	 0.000E+00	 3.380E+04	 4.180E+03	 5.525E+03	 5.000E+03	 4.308E+01
    0.4875	 1.600E+01	 1.202E+01	 1.210E+01	 0.000E+00	 3.380E+04	 4.180E+03	 5.524E+03	 5.000E+03	 4.308E+01
    0.5000	 1.600E+01	 1.202E+01	 1.210E+01	 0.000E+00	 3.380E+04	 4.180E+03	 5.523E+03	 5.000E+03	 4.308E+01
    0.5125	 1.600E+01	 1.202E+01	 1.210E+01	 0.000E+00	 3.380E+04	 4.180E+03	 5.522E+03	 5.000E+03	 4.308E+01
    0.5250	 1.600E+01	 1.202E+01	 1.210E+01	 0.000E+00	 3.380E+04	 4.180E+03	 5.521E+03	 5.000E+03	 4.308E+01
    0.5375	 1.600E+01	 1.202E+01	 1.210E+01	 0.000E+00	 3.380E+04	 4.180E+03	 5.521E+03	 5.000E+03	 4.308E+01
    0.5500	 1.600E+01	 1.202E+01	 1.210E+01	 0.000E+00	 3.379E+04	 4.180E+03	 5.520E+03	 5.000E+03	 4.308E+01
    0.5625	 1.600E+01	 1.202E+01	 1.210E+01	 0.000E+00	 3.379E+04	 4.180E+03	 5.519E+03	 5.000E+03	 4.308E+01
    0.5750	 1.600E+01	 1.202E+01	 1.210E+01	 0.000E+00	 3.379E+04	 4.180E+03	 5.519E+03	 5.000E+03	 4.308E+01
    0.5875	 1.600E+01	 1.202E+01	 1.210E+01	 0.000E+00	 3.379E+04	 4.180E+03	 5.518E+03	 5.000E+03	 4.308E+01
    0.6000	 1.600E+01	 1.202E+01	 1.210E+01	 0.000E+00	 3.379E+04	 4.180E+03	 5.517E+03	 5.000E+03	 4.308E+01
    0.6125	 1.600E+01	 1.202E+01	 1.210E+01	 0.000E+00	 3.379E+04	 4.180E+03	 5.517E+03	 5.000E+03	 4.308E+01
    0.6250	 1.600E+01	 1.202E+01	 1.210E+01	 0.000E+00	 3.379E+04	 4.180E+03	 5.517E+03	 5.000E+03	 4.308E+01
    0.6375	 1.600E+01	 1.202E+01	 1.210E+01	 0.000E+00	 3.379E+04	 4.180E+03	 5.516E+03	 5.000E+03	 4.308E+01
    0.6500	 1.600E+01	 1.202E+01	 1.210E+01	 0.000E+00	 3.378E+04	 4.180E+03	 5.516E+03	 5.000E+03	 4.308E+01
    0.6625	 1.600E+01	 1.202E+01	 1.210E+01	 0.000E+00	 3.378E+04	 4.180E+03	 5.516E+03	 5.000E+03	 4.308E+01
    0.6750	 1.600E+01	 1.202E+01	 1.210E+01	 0.000E+00	 3.378E+04	 4.180E+03	 5.516E+03	 5.000E+03	 4.308E+01
    0.6875	 1.600E+01	 1.202E+01	 1.210E+01	 0.000E+00	 3.378E+04	 4.180E+03	 5.515E+03	 5.000E+03	 4.308E+01
    0.7000	 1.600E+01	 1.202E+01	 1.210E+01	 0.000E+00	 3.378E+04	 4.180E+03	 5.515E+03	 5.000E+03	 4.308E+01
    0.7125	 1.600E+01	 1.202E+01	 1.210E+01	 0.000E+00	 3.378E+04	 4.180E+03	 5.515E+03	 5.000E+03	 4.308E+01
    0.7250	 1.600E+01	 1.202E+01	 1.210E+01	 0.000E+00	 3.378E+04	 4.180E+03	 5.515E+03	 5.000E+03	 4.308E+01
    0.7375	 1.600E+01	 1.202E+01	 1.210E+01	 0.000E+00	 3.378E+04	 4.180E+03	 5.515E+03	 5.000E+03	 4.308E+01
    0.7500	 1.600E+01	 1.202E+01	 1.210E+01	 0.000E+00	 3.377E+04	 4.180E+03	 5.516E+03	 5.000E+03	 4.308E+01
    0.7625	 1.600E+01	 1.202E+01	 1.210E+01	 0.000E+00	 3.377E+04	 4.180E+03	 5.516E+03	 5.000E+03	 4.308E+01
    0.7750	 1.600E+01	 1.202E+01	 1.210E+01	 0.000E+00	 3.377E+04	 4.180E+03	 5.516E+03	 5.000E+03	 4.308E+01
    0.7875	 1.600E+01	 1.202E+01	 1.210E+01	 0.000E+00	 3.377E+04	 4.180E+03	 5.516E+03	 5.000E+03	 4.308E+01
    0.8000	 1.600E+01	 1.202E+01	 1.210E+01	 0.000E+00	 3.377E+04	 4.180E+03	 5.517E+03	 5.000E+03	 4.308E+01
    0.8125	 1.600E+01	 1.202E+01	 1.210E+01	 0.000E+00	 3.377E+04	 4.180E+03	 5.517E+03	 5.000E+03	 4.308E+01
    0.8250	 1.600E+01	 1.202E+01	 1.210E+01	 0.000E+00	 3.377E+04	 4.180E+03	 5.518E+03	 5.000E+03	 4.308E+01
    0.8375	 1.600E+01	 1.202E+01	 1.210E+01	 0.000E+00	 3.377E+04	 4.180E+03	 5.518E+03	 5.000E+03	 4.308E+01
    0.8500	 1.600E+01	 1.202E+01	 1.210E+01	 0.000E+00	 3.377E+04	 4.179E+03	 5.519E+03	 5.000E+03	 4.308E+01
    0.8625	 1.600E+01	 1.202E+01	 1.210E+01	 0.000E+00	 3.377E+04	 4.179E+03	 5.519E+03	 5.000E+03	 4.308E+01
    0.8750	 1.600E+01	 1.202E+01	 1.210E+01	 0.000E+00	 3.376E+04	 4.179E+03	 5.520E+03	 5.000E+03	 4.308E+01
    0.8875	 1.600E+01	 1.202E+01	 1.210E+01	 0.000E+00	 3.376E+04	 4.179E+03	 5.521E+03	 5.000E+03	 4.308E+01
    0.9000	 1.600E+01	 1.202E+01	 1.210E+01	 0.000E+00	 3.376E+04	 4.179E+03	 5.522E+03	 5.000E+03	 4.308E+01
    0.9125	 1.600E+01	 1.202E+01	 1.210E+01	 0.000E+00	 3.376E+04	 4.179E+03	 5.523E+03	 5.000E+03	 4.308E+01
    0.9250	 1.600E+01	 1.202E+01	 1.210E+01	 0.000E+00	 3.376E+04	 4.179E+03	 5.524E+03	 5.000E+03	 4.308E+01
    0.9375	 1.600E+01	 1.202E+01	 1.210E+01	 0.000E+00	 3.376E+04	 4.179E+03	 5.525E+03	 5.000E+03	 4.308E+01
    0.9500	 1.600E+01	 1.202E+01	 1.210E+01	 0.000E+00	 3.376E+04	 4.179E+03	 5.526E+03	 5.000E+03	 4.308E+01
    0.9625	 1.600E+01	 1.202E+01	 1.210E+01	 0.000E+00	 3.376E+04	 4.179E+03	 5.527E+03	 5.000E+03	 4.308E+01
    0.9750	 1.600E+01	 1.202E+01	 1.210E+01	 0.000E+00	 3.376E+04	 4.179E+03	 5.528E+03	 5.000E+03	 4.308E+01
    0.9875	 1.600E+01	 1.202E+01	 1.210E+01	 0.000E+00	 3.376E+04	 4.179E+03	 5.529E+03	 5.000E+03	 4.308E+01
    1.0000	 1.600E+01	 1.202E+01	 1.210E+01	 0.000E+00	 3.375E+04	 4.179E+03	 5.530E+03	 5.000E+03	 4.308E+01
    1.0125	 1.600E+01	 1.202E+01	 1.210E+01	 0.000E+00	 3.375E+04	 4.179E+03	 5.532E+03	 5.000E+03	 4.308E+01
    1.0250	 1.600E+01	 1.202E+01	 1.210E+01	 0.000E+00	 3.375E+04	 4.179E+03	 5.533E+03	 5.000E+03	 4.308E+01
    1.0375	 1.600E+01	 1.202E+01	 1.210E+01	 0.000E+00	 3.375E+04	 4.179E+03	 5.534E+03	 5.000E+03	 4.308E+01
    1.0500	 1.600E+01	 1.202E+01	 1.210E+01	 0.000E+00	 3.375E+04	 4.179E+03	 5.536E+03	 5.000E+03	 4.308E+01
    1.0625	 1.600E+01	 1.202E+01	 1.210E+01	 0.000E+00	 3.375E+04	 4.179E+03	 5.537E+03	 5.000E+03	 4.308E+01
    1.0750	 1.600E+01	 1.202E+01	 1.210E+01	 0.000E+00	 3.375E+04	 4.179E+03	 5.539E+03	 5.000E+03	 4.308E+01
    1.0875	 1.600E+01	 1.202E+01	 1.210E+01	 0.000E+00	 3.375E+04	 4.179E+03	 5.541E+03	 5.000E+03	 4.308E+01
    1.1000	 1.600E+01	 1.202E+01	 1.210E+01	 0.000E+00	 3.375E+04	 4.179E+03	 5.542E+03	 5.000E+03	 4.308E+01
    1.1125	 1.600E+01	 1.202E+01	 1.210E+01	 0.000E+00	 3.375E+04	 4.179E+03	 5.544E+03	 5.000E+03	 4.308E+01
    1.1250	 1.600E+01	 1.202E+01	 1.210E+01	 0.000E+00	 3.375E+04	 4.179E+03	 5.546E+03	 5.000E+03	 4.308E+01
    1.1375	 1.600E+01	 1.202E+01	 1.210E+01	 0.000E+00	 3.375E+04	 4.179E+03	 5.548E+03	 5.000E+03	 4.308E+01
    1.1500	 1.600E+01	 1.202E+01	 1.210E+01	 0.000E+00	 3.375E+04	 4.179E+03	 5.550E+03	 5.000E+03	 4.308E+01
    1.1625	 1.600E+01	 1.202E+01	 1.210E+01	 0.000E+00	 3.374E+04	 4.179E+03	 5.552E+03	 5.000E+03	 4.308E+01
    1.1750	 1.600E+01	 1.202E+01	 1.210E+01	 0.000E+00	 3.374E+04	 4.179E+03	 5.553E+03	 5.000E+03	 4.308E+01
    1.1875	 1.600E+01	 1.202E+01	 1.210E+01	 0.000E+00	 3.374E+04	 4.179E+03	 5.555E+03	 5.000E+03	 4.308E+01
    1.2000	 1.600E+01	 1.202E+01	 1.210E+01	 0.000E+00	 3.374E+04	 4.179E+03	 5.558E+03	 5.000E+03	 4.308E+01
    1.2125	 1.600E+01	 1.202E+01	 1.210E+01	 0.000E+00	 3.374E+04	 4.179E+03	 5.560E+03	 5.000E+03	 4.308E+01
    1.2250	 1.600E+01	 1.203E+01	 1.210E+01	 0.000E+00	 3.374E+04	 4.179E+03	 5.562E+03	 5.000E+03	 4.308E+01
    1.2375	 1.600E+01	 1.203E+01	 1.210E+01	 0.000E+00	 3.374E+04	 4.179E+03	 5.564E+03	 5.000E+03	 4.308E+01
    1.2500	 1.600E+01	 1.203E+01	 1.210E+01	 0.000E+00	 3.374E+04	 4.179E+03	 5.566E+03	 5.000E+03	 4.308E+01
    1.2625	 1.600E+01	 1.203E+01	 1.210E+01	 0.000E+00	 3.374E+04	 4.179E+03	 5.569E+03	 5.000E+03	 4.308E+01
    1.2750	 1.600E+01	 1.203E+01	 1.210E+01	 0.000E+00	 3.374E+04	 4.179E+03	 5.571E+03	 5.000E+03	 4.308E+01
    1.2875	 1.600E+01	 1.203E+01	 1.210E+01	 0.000E+00	 3.374E+04	 4.179E+03	 5.573E+03	 5.000E+03	 4.308E+01
    1.3000	 1.600E+01	 1.203E+01	 1.210E+01	 0.000E+00	 3.374E+04	 4.179E+03	 5.576E+03	 5.000E+03	 4.308E+01
    1.3125	 1.600E+01	 1.203E+01	 1.210E+01	 0.000E+00	 3.374E+04	 4.179E+03	 5.578E+03	 5.000E+03	 4.308E+01
    1.3250	 1.600E+01	 1.203E+01	 1.210E+01	 0.000E+00	 3.374E+04	 4.179E+03	 5.581E+03	 5.000E+03	 4.308E+01
    1.3375	 1.600E+01	 1.203E+01	 1.210E+01	 0.000E+00	 3.374E+04	 4.179E+03	 5.583E+03	 5.000E+03	 4.308E+01
    1.3500	 1.600E+01	 1.203E+01	 1.210E+01	 0.000E+00	 3.374E+04	 4.179E+03	 5.586E+03	 5.000E+03	 4.308E+01
    1.3625	 1.600E+01	 1.203E+01	 1.210E+01	 0.000E+00	 3.374E+04	 4.179E+03	 5.588E+03	 5.000E+03	 4.308E+01
    1.3750	 1.600E+01	 1.203E+01	 1.210E+01	 0.000E+00	 3.374E+04	 4.179E+03	 5.591E+03	 5.000E+03	 4.308E+01
    1.3875	 1.600E+01	 1.203E+01	 1.210E+01	 0.000E+00	 3.373E+04	 4.179E+03	 5.594E+03	 5.000E+03	 4.308E+01
    1.4000	 1.600E+01	 1.203E+01	 1.210E+01	 0.000E+00	 3.373E+04	 4.179E+03	 5.597E+03	 5.000E+03	 4.308E+01
    1.4125	 1.600E+01	 1.203E+01	 1.210E+01	 0.000E+00	 3.373E+04	 4.179E+03	 5.599E+03	 5.000E+03	 4.308E+01
    1.4250	 1.600E+01	 1.203E+01	 1.210E+01	 0.000E+00	 3.373E+04	 4.179E+03	 5.602E+03	 5.000E+03	 4.308E+01
    1.4375	 1.600E+01	 1.203E+01	 1.210E+01	 0.000E+00	 3.373E+04	 4.179E+03	 5.605E+03	 5.000E+03	 4.308E+01
    1.4500	 1.600E+01	 1.203E+01	 1.210E+01	 0.000E+00	 3.373E+04	 4.179E+03	 5.608E+03	 5.000E+03	 4.308E+01
    1.4625	 1.600E+01	 1.203E+01	 1.210E+01	 0.000E+00	 3.373E+04	 4.179E+03	 5.611E+03	 5.000E+03	 4.308E+01
    1.4750	 1.600E+01	 1.203E+01	 1.210E+01	 0.000E+00	 3.373E+04	 4.179E+03	 5.614E+03	 5.000E+03	 4.308E+01
    1.4875	 1.600E+01	 1.203E+01	 1.210E+01	 0.000E+00	 3.373E+04	 4.179E+03	 5.617E+03	 5.000E+03	 4.308E+01
    1.5000	 1.600E+01	 1.203E+01	 1.210E+01	 0.000E+00	 3.373E+04	 4.179E+03	 5.620E+03	 5.000E+03	 4.308E+01
    1.5125	 1.600E+01	 1.203E+01	 1.210E+01	 0.000E+00	 3.373E+04	 4.179E+03	 5.623E+03	 5.000E+03	 4.308E+01
    1.5250	 1.600E+01	 1.203E+01	 1.210E+01	 0.000E+00	 3.373E+04	 4.179E+03	 5.626E+03	 5.000E+03	 4.308E+01
    1.5375	 1.600E+01	 1.203E+01	 1.210E+01	 0.000E+00	 3.373E+04	 4.179E+03	 5.629E+03	 5.000E+03	 4.308E+01
    1.5500	 1.600E+01	 1.203E+01	 1.210E+01	 0.000E+00	 3.373E+04	 4.179E+03	 5.632E+03	 5.000E+03	 4.308E+01
    1.5625	 1.600E+01	 1.203E+01	 1.210E+01	 0.000E+00	 3.373E+04	 4.179E+03	 5.635E+03	 5.000E+03	 4.308E+01
    1.5750	 1.600E+01	 1.203E+01	 1.210E+01	 0.000E+00	 3.373E+04	 4.179E+03	 5.638E+03	 5.000E+03	 4.308E+01
    1.5875	 1.600E+01	 1.203E+01	 1.210E+01	 0.000E+00	 3.373E+04	 4.179E+03	 5.642E+03	 5.000E+03	 4.308E+01
    1.6000	 1.600E+01	 1.203E+01	 1.210E+01	 0.000E+00	 3.373E+04	 4.179E+03	 5.645E+03	 5.000E+03	 4.308E+01
    1.6125	 1.600E+01	 1.203E+01	 1.210E+01	 0.000E+00	 3.373E+04	 4.179E+03	 5.648E+03	 5.000E+03	 4.308E+01
    1.6250	 1.600E+01	 1.203E+01	 1.210E+01	 0.000E+00	 3.373E+04	 4.179E+03	 5.651E+03	 5.000E+03	 4.308E+01
    1.6375	 1.600E+01	 1.203E+01	 1.210E+01	 0.000E+00	 3.372E+04	 4.178E+03	 5.655E+03	 5.000E+03	 4.308E+01
    1.6500	 1.600E+01	 1.203E+01	 1.210E+01	 0.000E+00	 3.372E+04	 4.178E+03	 5.658E+03	 5.000E+03	 4.308E+01
    1.6625	 1.600E+01	 1.203E+01	 1.210E+01	 0.000E+00	 3.372E+04	 4.178E+03	 5.661E+03	 5.000E+03	 4.308E+01
    1.6750	 1.600E+01	 1.203E+01	 1.210E+01	 0.000E+00	 3.372E+04	 4.178E+03	 5.665E+03	 5.000E+03	 4.308E+01
    1.6875	 1.600E+01	 1.203E+01	 1.210E+01	 0.000E+00	 3.372E+04	 4.178E+03	 5.668E+03	 5.000E+03	 4.308E+01
    1.7000	 1.600E+01	 1.203E+01	 1.210E+01	 0.000E+00	 3.372E+04	 4.178E+03	 5.671E+03	 5.000E+03	 4.308E+01
    1.7125	 1.600E+01	 1.203E+01	 1.210E+01	 0.000E+00	 3.372E+04	 4.178E+03	 5.675E+03	 5.000E+03	 4.308E+01
    1.7250	 1.600E+01	 1.203E+01	 1.210E+01	 0.000E+00	 3.372E+04	 4.178E+03	 5.678E+03	 5.000E+03	 4.308E+01
    1.7375	 1.600E+01	 1.203E+01	 1.210E+01	 0.000E+00	 3.372E+04	 4.178E+03	 5.682E+03	 5.000E+03	 4.308E+01
    1.7500	 1.600E+01	 1.203E+01	 1.210E+01	 0.000E+00	 3.372E+04	 4.178E+03	 5.685E+03	 5.000E+03	 4.308E+01
    1.7625	 1.600E+01	 1.203E+01	 1.210E+01	 0.000E+00	 3.372E+04	 4.178E+03	 5.689E+03	 5.000E+03	 4.308E+01
    1.7750	 1.600E+01	 1.203E+01	 1.210E+01	 0.000E+00	 3.372E+04	 4.178E+03	 5.692E+03	 5.000E+03	 4.308E+01
    1.7875	 1.600E+01	 1.203E+01	 1.210E+01	 0.000E+00	 3.371E+04	 4.178E+03	 5.696E+03	 5.000E+03	 4.308E+01
    1.8000	 1.600E+01	 1.203E+01	 1.210E+01	 0.000E+00	 3.371E+04	 4.178E+03	 5.699E+03	 5.000E+03	 4.308E+01
    1.8125	 1.600E+01	 1.203E+01	 1.210E+01	 0.000E+00	 3.371E+04	 4.178E+03	 5.703E+03	 5.000E+03	 4.308E+01
    1.8250	 1.600E+01	 1.203E+01	 1.210E+01	 0.000E+00	 3.371E+04	 4.178E+03	 5.706E+03	 5.000E+03	 4.308E+01
    1.8375	 1.600E+01	 1.203E+01	 1.210E+01	 0.000E+00	 3.371E+04	 4.178E+03	 5.710E+03	 5.000E+03	 4.308E+01
    1.8500	 1.600E+01	 1.203E+01	 1.210E+01	 0.000E+00	 3.371E+04	 4.178E+03	 5.713E+03	 5.000E+03	 4.308E+01
    1.8625	 1.600E+01	 1.203E+01	 1.210E+01	 0.000E+00	 3.371E+04	 4.178E+03	 5.717E+03	 5.000E+03	 4.308E+01
    1.8750	 1.600E+01	 1.203E+01	 1.210E+01	 0.000E+00	 3.371E+04	 4.178E+03	 5.720E+03	 5.000E+03	 4.308E+01
    1.8875	 1.600E+01	 1.203E+01	 1.210E+01	 0.000E+00	 3.371E+04	 4.178E+03	 5.724E+03	 5.000E+03	 4.308E+01
    1.9000	 1.600E+01	 1.203E+01	 1.210E+01	 0.000E+00	 3.371E+04	 4.178E+03	 5.727E+03	 5.000E+03	 4.308E+01
    1.9125	 1.600E+01	 1.203E+01	 1.210E+01	 0.000E+00	 3.371E+04	 4.178E+03	 5.731E+03	 5.000E+03	 4.308E+01
    1.9250	 1.600E+01	 1.203E+01	 1.210E+01	 0.000E+00	 3.371E+04	 4.178E+03	 5.735E+03	 5.000E+03	 4.308E+01
    1.9375	 1.600E+01	 1.203E+01	 1.210E+01	 0.000E+00	 3.370E+04	 4.178E+03	 5.738E+03	 5.000E+03	 4.308E+01
    1.9500	 1.600E+01	 1.203E+01	 1.210E+01	 0.000E+00	 3.370E+04	 4.178E+03	 5.742E+03	 5.000E+03	 4.308E+01
    1.9625	 1.600E+01	 1.203E+01	 1.210E+01	 0.000E+00	 3.370E+04	 4.178E+03	 5.745E+03	 5.000E+03	 4.308E+01
    1.9750	 1.600E+01	 1.203E+01	 1.210E+01	 0.000E+00	 3.370E+04	 4.178E+03	 5.749E+03	 5.000E+03	 4.308E+01
    1.9875	 1.600E+01	 1.203E+01	 1.210E+01	 0.000E+00	 3.370E+04	 4.178E+03	 5.752E+03	 5.000E+03	 4.308E+01
    2.0000	 1.600E+01	 1.203E+01	 1.210E+01	 0.000E+00	 3.370E+04	 4.178E+03	 5.756E+03	 5.000E+03	 4.308E+01
    2.0125	 1.600E+01	 1.203E+01	 1.210E+01	 0.000E+00	 3.370E+04	 4.178E+03	 5.759E+03	 5.000E+03	 4.308E+01
    2.0250	 1.600E+01	 1.203E+01	 1.210E+01	 0.000E+00	 3.370E+04	 4.178E+03	 5.763E+03	 5.000E+03	 4.308E+01
    2.0375	 1.600E+01	 1.203E+01	 1.210E+01	 0.000E+00	 3.370E+04	 4.178E+03	 5.766E+03	 5.000E+03	 4.308E+01
    2.0500	 1.600E+01	 1.203E+01	 1.210E+01	 0.000E+00	 3.370E+04	 4.178E+03	 5.770E+03	 5.000E+03	 4.308E+01
    2.0625	 1.600E+01	 1.203E+01	 1.210E+01	 0.000E+00	 3.370E+04	 4.178E+03	 5.773E+03	 5.000E+03	 4.308E+01
    2.0750	 1.600E+01	 1.203E+01	 1.210E+01	 0.000E+00	 3.370E+04	 4.178E+03	 5.777E+03	 5.000E+03	 4.308E+01
    2.0875	 1.600E+01	 1.203E+01	 1.210E+01	 0.000E+00	 3.370E+04	 4.178E+03	 5.780E+03	 5.000E+03	 4.308E+01
    2.1000	 1.600E+01	 1.203E+01	 1.210E+01	 0.000E+00	 3.369E+04	 4.178E+03	 5.783E+03	 5.000E+03	 4.308E+01
    2.1125	 1.600E+01	 1.203E+01	 1.210E+01	 0.000E+00	 3.369E+04	 4.178E+03	 5.787E+03	 5.000E+03	 4.308E+01
    2.1250	 1.600E+01	 1.203E+01	 1.210E+01	 0.000E+00	 3.369E+04	 4.178E+03	 5.790E+03	 5.000E+03	 4.308E+01
    2.1375	 1.600E+01	 1.203E+01	 1.210E+01	 0.000E+00	 3.369E+04	 4.178E+03	 5.794E+03	 5.000E+03	 4.308E+01
    2.1500	 1.600E+01	 1.203E+01	 1.210E+01	 0.000E+00	 3.369E+04	 4.178E+03	 5.797E+03	 5.000E+03	 4.308E+01
    2.1625	 1.600E+01	 1.203E+01	 1.210E+01	 0.000E+00	 3.369E+04	 4.178E+03	 5.800E+03	 5.000E+03	 4.308E+01
    2.1750	 1.600E+01	 1.203E+01	 1.210E+01	 0.000E+00	 3.369E+04	 4.178E+03	 5.804E+03	 5.000E+03	 4.308E+01
    2.1875	 1.600E+01	 1.203E+01	 1.210E+01	 0.000E+00	 3.369E+04	 4.178E+03	 5.807E+03	 5.000E+03	 4.308E+01
    2.2000	 1.600E+01	 1.203E+01	 1.210E+01	 0.000E+00	 3.369E+04	 4.178E+03	 5.810E+03	 5.000E+03	 4.308E+01
    2.2125	 1.600E+01	 1.203E+01	 1.210E+01	 0.000E+00	 3.369E+04	 4.178E+03	 5.813E+03	 5.000E+03	 4.308E+01
    2.2250	 1.600E+01	 1.203E+01	 1.210E+01	 0.000E+00	 3.369E+04	 4.178E+03	 5.817E+03	 5.000E+03	 4.308E+01
    2.2375	 1.600E+01	 1.203E+01	 1.210E+01	 0.000E+00	 3.369E+04	 4.178E+03	 5.820E+03	 5.000E+03	 4.308E+01
    2.2500	 1.600E+01	 1.203E+01	 1.210E+01	 0.000E+00	 3.369E+04	 4.178E+03	 5.823E+03	 5.000E+03	 4.308E+01
    2.2625	 1.600E+01	 1.203E+01	 1.210E+01	 0.000E+00	 3.369E+04	 4.178E+03	 5.826E+03	 5.000E+03	 4.308E+01
    2.2750	 1.600E+01	 1.203E+01	 1.210E+01	 0.000E+00	 3.369E+04	 4.178E+03	 5.829E+03	 5.000E+03	 4.308E+01
    2.2875	 1.600E+01	 1.203E+01	 1.210E+01	 0.000E+00	 3.368E+04	 4.178E+03	 5.832E+03	 5.000E+03	 4.308E+01
    2.3000	 1.600E+01	 1.203E+01	 1.210E+01	 0.000E+00	 3.368E+04	 4.178E+03	 5.835E+03	 5.000E+03	 4.308E+01
    2.3125	 1.600E+01	 1.203E+01	 1.210E+01	 0.000E+00	 3.368E+04	 4.178E+03	 5.839E+03	 5.000E+03	 4.308E+01
    2.3250	 1.600E+01	 1.203E+01	 1.210E+01	 0.000E+00	 3.368E+04	 4.178E+03	 5.842E+03	 5.000E+03	 4.308E+01
    2.3375	 1.600E+01	 1.203E+01	 1.210E+01	 0.000E+00	 3.368E+04	 4.178E+03	 5.845E+03	 5.000E+03	 4.308E+01
    2.3500	 1.600E+01	 1.203E+01	 1.210E+01	 0.000E+00	 3.368E+04	 4.178E+03	 5.847E+03	 5.000E+03	 4.308E+01
    2.3625	 1.600E+01	 1.203E+01	 1.210E+01	 0.000E+00	 3.368E+04	 4.178E+03	 5.850E+03	 5.000E+03	 4.308E+01
    2.3750	 1.600E+01	 1.203E+01	 1.210E+01	 0.000E+00	 3.368E+04	 4.178E+03	 5.853E+03	 5.000E+03	 4.308E+01
    2.3875	 1.600E+01	 1.203E+01	 1.210E+01	 0.000E+00	 3.368E+04	 4.178E+03	 5.856E+03	 5.000E+03	 4.308E+01
    2.4000	 1.600E+01	 1.203E+01	 1.210E+01	 0.000E+00	 3.368E+04	 4.178E+03	 5.859E+03	 5.000E+03	 4.308E+01
    2.4125	 1.600E+01	 1.203E+01	 1.210E+01	 0.000E+00	 3.368E+04	 4.178E+03	 5.862E+03	 5.000E+03	 4.308E+01
    2.4250	 1.600E+01	 1.203E+01	 1.210E+01	 0.000E+00	 3.368E+04	 4.178E+03	 5.864E+03	 5.000E+03	 4.308E+01
    2.4375	 1.600E+01	 1.203E+01	 1.210E+01	 0.000E+00	 3.368E+04	 4.178E+03	 5.867E+03	 5.000E+03	 4.308E+01
    2.4500	 1.600E+01	 1.203E+01	 1.210E+01	 0.000E+00	 3.368E+04	 4.178E+03	 5.870E+03	 5.000E+03	 4.308E+01
    2.4625	 1.600E+01	 1.203E+01	 1.210E+01	 0.000E+00	 3.368E+04	 4.178E+03	 5.872E+03	 5.000E+03	 4.308E+01
    2.4750	 1.600E+01	 1.203E+01	 1.210E+01	 0.000E+00	 3.368E+04	 4.178E+03	 5.875E+03	 5.000E+03	 4.308E+01
    2.4875	 1.600E+01	 1.203E+01	 1.210E+01	 0.000E+00	 3.368E+04	 4.178E+03	 5.877E+03	 5.000E+03	 4.308E+01
    2.5000	 1.600E+01	 1.204E+01	 1.210E+01	 0.000E+00	 3.368E+04	 4.178E+03	 5.880E+03	 5.000E+03	 4.308E+01
    2.5125	 1.600E+01	 1.204E+01	 1.210E+01	 0.000E+00	 3.368E+04	 4.178E+03	 5.882E+03	 5.000E+03	 4.308E+01
    2.5250	 1.600E+01	 1.204E+01	 1.210E+01	 0.000E+00	 3.368E+04	 4.178E+03	 5.885E+03	 5.000E+03	 4.308E+01
    2.5375	 1.600E+01	 1.204E+01	 1.210E+01	 0.000E+00	 3.368E+04	 4.178E+03	 5.887E+03	 5.000E+03	 4.308E+01
    2.5500	 1.600E+01	 1.204E+01	 1.210E+01	 0.000E+00	 3.368E+04	 4.178E+03	 5.889E+03	 5.000E+03	 4.308E+01
    2.5625	 1.600E+01	 1.204E+01	 1.210E+01	 0.000E+00	 3.368E+04	 4.178E+03	 5.892E+03	 5.000E+03	 4.308E+01
    2.5750	 1.600E+01	 1.204E+01	 1.210E+01	 0.000E+00	 3.368E+04	 4.178E+03	 5.894E+03	 5.000E+03	 4.308E+01
    2.5875	 1.600E+01	 1.204E+01	 1.210E+01	 0.000E+00	 3.368E+04	 4.178E+03	 5.896E+03	 5.000E+03	 4.308E+01
    2.6000	 1.600E+01	 1.204E+01	 1.210E+01	 0.000E+00	 3.368E+04	 4.178E+03	 5.898E+03	 5.000E+03	 4.308E+01
    2.6125	 1.600E+01	 1.204E+01	 1.210E+01	 0.000E+00	 3.368E+04	 4.178E+03	 5.900E+03	 5.000E+03	 4.308E+01
    2.6250	 1.600E+01	 1.204E+01	 1.210E+01	 0.000E+00	 3.368E+04	 4.178E+03	 5.902E+03	 5.000E+03	 4.308E+01
    2.6375	 1.600E+01	 1.204E+01	 1.210E+01	 0.000E+00	 3.367E+04	 4.178E+03	 5.904E+03	 5.000E+03	 4.308E+01
    2.6500	 1.600E+01	 1.204E+01	 1.210E+01	 0.000E+00	 3.367E+04	 4.178E+03	 5.906E+03	 5.000E+03	 4.308E+01
    2.6625	 1.600E+01	 1.204E+01	 1.210E+01	 0.000E+00	 3.367E+04	 4.178E+03	 5.908E+03	 5.000E+03	 4.308E+01
    2.6750	 1.600E+01	 1.204E+01	 1.210E+01	 0.000E+00	 3.367E+04	 4.178E+03	 5.910E+03	 5.000E+03	 4.308E+01
    2.6875	 1.600E+01	 1.204E+01	 1.210E+01	 0.000E+00	 3.367E+04	 4.178E+03	 5.912E+03	 5.000E+03	 4.308E+01
    2.7000	 1.600E+01	 1.204E+01	 1.210E+01	 0.000E+00	 3.367E+04	 4.178E+03	 5.913E+03	 5.000E+03	 4.308E+01
    2.7125	 1.600E+01	 1.204E+01	 1.210E+01	 0.000E+00	 3.367E+04	 4.178E+03	 5.915E+03	 5.000E+03	 4.308E+01
    2.7250	 1.600E+01	 1.204E+01	 1.210E+01	 0.000E+00	 3.367E+04	 4.178E+03	 5.917E+03	 5.000E+03	 4.308E+01
    2.7375	 1.600E+01	 1.204E+01	 1.210E+01	 0.000E+00	 3.367E+04	 4.178E+03	 5.918E+03	 5.000E+03	 4.308E+01
    2.7500	 1.600E+01	 1.204E+01	 1.210E+01	 0.000E+00	 3.367E+04	 4.178E+03	 5.920E+03	 5.000E+03	 4.308E+01
    2.7625	 1.600E+01	 1.204E+01	 1.210E+01	 0.000E+00	 3.367E+04	 4.178E+03	 5.921E+03	 5.000E+03	 4.308E+01
    2.7750	 1.600E+01	 1.204E+01	 1.210E+01	 0.000E+00	 3.367E+04	 4.178E+03	 5.922E+03	 5.000E+03	 4.308E+01
    2.7875	 1.600E+01	 1.204E+01	 1.210E+01	 0.000E+00	 3.367E+04	 4.178E+03	 5.924E+03	 5.000E+03	 4.308E+01
    2.8000	 1.600E+01	 1.204E+01	 1.210E+01	 0.000E+00	 3.367E+04	 4.178E+03	 5.925E+03	 5.000E+03	 4.308E+01
    2.8125	 1.600E+01	 1.204E+01	 1.210E+01	 0.000E+00	 3.367E+04	 4.178E+03	 5.926E+03	 5.000E+03	 4.308E+01
    2.8250	 1.600E+01	 1.204E+01	 1.210E+01	 0.000E+00	 3.367E+04	 4.178E+03	 5.928E+03	 5.000E+03	 4.308E+01
    2.8375	 1.600E+01	 1.204E+01	 1.210E+01	 0.000E+00	 3.367E+04	 4.178E+03	 5.929E+03	 5.000E+03	 4.308E+01
    2.8500	 1.600E+01	 1.204E+01	 1.210E+01	 0.000E+00	 3.367E+04	 4.178E+03	 5.930E+03	 5.000E+03	 4.308E+01
    2.8625	 1.600E+01	 1.204E+01	 1.210E+01	 0.000E+00	 3.367E+04	 4.178E+03	 5.931E+03	 5.000E+03	 4.308E+01
    2.8750	 1.600E+01	 1.204E+01	 1.210E+01	 0.000E+00	 3.367E+04	 4.178E+03	 5.932E+03	 5.000E+03	 4.308E+01
    2.8875	 1.600E+01	 1.204E+01	 1.210E+01	 0.000E+00	 3.367E+04	 4.178E+03	 5.933E+03	 5.000E+03	 4.308E+01
    2.9000	 1.600E+01	 1.204E+01	 1.210E+01	 0.000E+00	 3.367E+04	 4.178E+03	 5.934E+03	 5.000E+03	 4.308E+01
    2.9125	 1.600E+01	 1.204E+01	 1.210E+01	 0.000E+00	 3.367E+04	 4.178E+03	 5.935E+03	 5.000E+03	 4.308E+01
    2.9250	 1.600E+01	 1.204E+01	 1.210E+01	 0.000E+00	 3.367E+04	 4.178E+03	 5.935E+03	 5.000E+03	 4.308E+01
    2.9375	 1.600E+01	 1.204E+01	 1.210E+01	 0.000E+00	 3.367E+04	 4.178E+03	 5.936E+03	 5.000E+03	 4.308E+01
    2.9500	 1.600E+01	 1.204E+01	 1.210E+01	 0.000E+00	 3.367E+04	 4.178E+03	 5.937E+03	 5.000E+03	 4.308E+01
    2.9625	 1.600E+01	 1.204E+01	 1.210E+01	 0.000E+00	 3.367E+04	 4.178E+03	 5.937E+03	 5.000E+03	 4.308E+01
    2.9750	 1.600E+01	 1.204E+01	 1.210E+01	 0.000E+00	 3.367E+04	 4.178E+03	 5.938E+03	 5.000E+03	 4.308E+01
    2.9875	 1.600E+01	 1.204E+01	 1.210E+01	 0.000E+00	 3.367E+04	 4.178E+03	 5.938E+03	 5.000E+03	 4.308E+01
    3.0000	 1.600E+01	 1.204E+01	 1.210E+01	 0.000E+00	 3.367E+04	 4.178E+03	 5.939E+03	 5.000E+03	 4.308E+01
    3.0125	 1.600E+01	 1.204E+01	 1.210E+01	 0.000E+00	 3.367E+04	 4.178E+03	 5.939E+03	 5.000E+03	 4.308E+01
    3.0250	 1.600E+01	 1.204E+01	 1.210E+01	 0.000E+00	 3.367E+04	 4.178E+03	 5.939E+03	 5.000E+03	 4.308E+01
    3.0375	 1.600E+01	 1.204E+01	 1.210E+01	 0.000E+00	 3.367E+04	 4.178E+03	 5.940E+03	 5.000E+03	 4.308E+01
    3.0500	 1.600E+01	 1.204E+01	 1.210E+01	 0.000E+00	 3.367E+04	 4.178E+03	 5.940E+03	 5.000E+03	 4.308E+01
    3.0625	 1.600E+01	 1.204E+01	 1.210E+01	 0.000E+00	 3.367E+04	 4.178E+03	 5.940E+03	 5.000E+03	 4.308E+01
    3.0750	 1.600E+01	 1.204E+01	 1.210E+01	 0.000E+00	 3.367E+04	 4.178E+03	 5.940E+03	 5.000E+03	 4.308E+01
    3.0875	 1.600E+01	 1.204E+01	 1.210E+01	 0.000E+00	 3.367E+04	 4.178E+03	 5.940E+03	 5.000E+03	 4.308E+01
    3.1000	 1.600E+01	 1.204E+01	 1.210E+01	 0.000E+00	 3.368E+04	 4.178E+03	 5.940E+03	 5.000E+03	 4.308E+01
    3.1125	 1.600E+01	 1.204E+01	 1.210E+01	 0.000E+00	 3.368E+04	 4.178E+03	 5.940E+03	 5.000E+03	 4.308E+01
    3.1250	 1.600E+01	 1.204E+01	 1.210E+01	 0.000E+00	 3.368E+04	 4.178E+03	 5.940E+03	 5.000E+03	 4.308E+01
    3.1375	 1.600E+01	 1.204E+01	 1.210E+01	 0.000E+00	 3.368E+04	 4.178E+03	 5.940E+03	 5.000E+03	 4.308E+01
    3.1500	 1.600E+01	 1.204E+01	 1.210E+01	 0.000E+00	 3.368E+04	 4.178E+03	 5.940E+03	 5.000E+03	 4.308E+01
    3.1625	 1.600E+01	 1.204E+01	 1.210E+01	 0.000E+00	 3.368E+04	 4.178E+03	 5.939E+03	 5.000E+03	 4.308E+01
    3.1750	 1.600E+01	 1.204E+01	 1.210E+01	 0.000E+00	 3.368E+04	 4.178E+03	 5.939E+03	 5.000E+03	 4.308E+01
    3.1875	 1.600E+01	 1.204E+01	 1.210E+01	 0.000E+00	 3.368E+04	 4.178E+03	 5.939E+03	 5.000E+03	 4.308E+01
    3.2000	 1.600E+01	 1.204E+01	 1.210E+01	 0.000E+00	 3.368E+04	 4.178E+03	 5.938E+03	 5.000E+03	 4.308E+01
    3.2125	 1.600E+01	 1.204E+01	 1.210E+01	 0.000E+00	 3.368E+04	 4.178E+03	 5.938E+03	 5.000E+03	 4.308E+01
    3.2250	 1.600E+01	 1.204E+01	 1.210E+01	 0.000E+00	 3.368E+04	 4.178E+03	 5.937E+03	 5.000E+03	 4.308E+01
    3.2375	 1.600E+01	 1.204E+01	 1.210E+01	 0.000E+00	 3.368E+04	 4.178E+03	 5.936E+03	 5.000E+03	 4.308E+01
    3.2500	 1.600E+01	 1.204E+01	 1.210E+01	 0.000E+00	 3.368E+04	 4.178E+03	 5.936E+03	 5.000E+03	 4.308E+01
    3.2625	 1.600E+01	 1.204E+01	 1.210E+01	 0.000E+00	 3.368E+04	 4.178E+03	 5.935E+03	 5.000E+03	 4.308E+01
    3.2750	 1.600E+01	 1.204E+01	 1.210E+01	 0.000E+00	 3.368E+04	 4.178E+03	 5.934E+03	 5.000E+03	 4.308E+01
    3.2875	 1.600E+01	 1.204E+01	 1.210E+01	 0.000E+00	 3.368E+04	 4.178E+03	 5.933E+03	 5.000E+03	 4.308E+01
    3.3000	 1.600E+01	 1.204E+01	 1.210E+01	 0.000E+00	 3.368E+04	 4.178E+03	 5.932E+03	 5.000E+03	 4.308E+01
    3.3125	 1.600E+01	 1.204E+01	 1.210E+01	 0.000E+00	 3.367E+04	 4.178E+03	 5.932E+03	 5.000E+03	 4.308E+01